<?xml version="1.0" encoding="UTF-8"?>

<!-- generated on 2024-01-26 21:29:28 by Eclipse SUMO GUI Version 1.19.0
<configuration xmlns:xsi="http://www.w3.org/2001/XMLSchema-instance" xsi:noNamespaceSchemaLocation="http://sumo.dlr.de/xsd/sumoConfiguration.xsd">

    <input>
        <net-file value="grid/demo.net.xml"/>
        <route-files value="grid/demo.rou.xml"/>
        <additional-files value="grid/demo.det.xml"/>
    </input>

    <output>
        <tripinfo-output value="tripinfo.xml"/>
    </output>

    <time>
        <begin value="0"/>
        <end value="800"/>
    </time>

    <processing>
        <time-to-teleport value="-1"/>
    </processing>

    <traci_server>
        <remote-port value="44195"/>
    </traci_server>

</configuration>
-->

<tripinfos xmlns:xsi="http://www.w3.org/2001/XMLSchema-instance" xsi:noNamespaceSchemaLocation="http://sumo.dlr.de/xsd/tripinfo_file.xsd">
    <tripinfo id="gen4.0" depart="1.00" departLane="(4_2)_2" departPos="5.10" departSpeed="0.00" departDelay="1.00" arrival="17.00" arrivalLane="(2_5)_2" arrivalPos="86.40" arrivalSpeed="16.39" duration="16.00" routeLength="194.90" waitingTime="0.00" waitingCount="0" stopTime="0.00" timeLoss="4.19" rerouteNo="0" devices="tripinfo_gen4.0 routing_gen4.0" vType="DEFAULT_VEHTYPE" speedFactor="1.03" vaporized=""/>
    <tripinfo id="gen3.0" depart="0.00" departLane="(4_2)_1" departPos="5.10" departSpeed="0.00" departDelay="0.00" arrival="18.00" arrivalLane="(2_1)_0" arrivalPos="86.40" arrivalSpeed="16.95" duration="18.00" routeLength="176.73" waitingTime="0.00" waitingCount="0" stopTime="0.00" timeLoss="7.07" rerouteNo="0" devices="tripinfo_gen3.0 routing_gen3.0" vType="DEFAULT_VEHTYPE" speedFactor="1.08" vaporized=""/>
    <tripinfo id="gen5.0" depart="0.00" departLane="(5_2)_1" departPos="5.10" departSpeed="0.00" departDelay="0.00" arrival="18.00" arrivalLane="(2_4)_2" arrivalPos="86.40" arrivalSpeed="12.65" duration="18.00" routeLength="194.90" waitingTime="0.00" waitingCount="0" stopTime="0.00" timeLoss="3.79" rerouteNo="0" devices="tripinfo_gen5.0 routing_gen5.0" vType="DEFAULT_VEHTYPE" speedFactor="0.83" vaporized=""/>
    <tripinfo id="gen6.0" depart="1.00" departLane="(5_2)_0" departPos="5.10" departSpeed="0.00" departDelay="1.00" arrival="20.00" arrivalLane="(2_3)_1" arrivalPos="86.40" arrivalSpeed="16.39" duration="19.00" routeLength="176.73" waitingTime="0.00" waitingCount="0" stopTime="0.00" timeLoss="6.88" rerouteNo="0" devices="tripinfo_gen6.0 routing_gen6.0" vType="DEFAULT_VEHTYPE" speedFactor="1.05" vaporized=""/>
    <tripinfo id="gen4.1" depart="4.00" departLane="(4_2)_2" departPos="5.10" departSpeed="0.00" departDelay="0.67" arrival="21.00" arrivalLane="(2_5)_0" arrivalPos="86.40" arrivalSpeed="15.18" duration="17.00" routeLength="194.90" waitingTime="0.00" waitingCount="0" stopTime="0.00" timeLoss="3.85" rerouteNo="0" devices="tripinfo_gen4.1 routing_gen4.1" vType="DEFAULT_VEHTYPE" speedFactor="0.94" vaporized=""/>
    <tripinfo id="gen6.1" depart="5.00" departLane="(5_2)_2" departPos="5.10" departSpeed="0.00" departDelay="0.00" arrival="24.00" arrivalLane="(2_3)_1" arrivalPos="86.40" arrivalSpeed="18.34" duration="19.00" routeLength="176.73" waitingTime="0.00" waitingCount="0" stopTime="0.00" timeLoss="7.71" rerouteNo="0" devices="tripinfo_gen6.1 routing_gen6.1" vType="DEFAULT_VEHTYPE" speedFactor="1.12" vaporized=""/>
    <tripinfo id="gen3.1" depart="4.00" departLane="(4_2)_0" departPos="5.10" departSpeed="0.00" departDelay="0.67" arrival="25.00" arrivalLane="(2_1)_0" arrivalPos="86.40" arrivalSpeed="13.54" duration="21.00" routeLength="176.73" waitingTime="0.00" waitingCount="0" stopTime="0.00" timeLoss="7.60" rerouteNo="0" devices="tripinfo_gen3.1 routing_gen3.1" vType="DEFAULT_VEHTYPE" speedFactor="0.89" vaporized=""/>
    <tripinfo id="gen5.1" depart="5.00" departLane="(5_2)_1" departPos="5.10" departSpeed="0.00" departDelay="0.00" arrival="25.00" arrivalLane="(2_4)_0" arrivalPos="86.40" arrivalSpeed="16.25" duration="20.00" routeLength="194.90" waitingTime="0.00" waitingCount="0" stopTime="0.00" timeLoss="8.62" rerouteNo="0" devices="tripinfo_gen5.1 routing_gen5.1" vType="DEFAULT_VEHTYPE" speedFactor="1.05" vaporized=""/>
    <tripinfo id="gen4.2" depart="7.00" departLane="(4_2)_2" departPos="5.10" departSpeed="0.00" departDelay="0.33" arrival="28.00" arrivalLane="(2_5)_0" arrivalPos="86.40" arrivalSpeed="15.32" duration="21.00" routeLength="194.90" waitingTime="0.00" waitingCount="0" stopTime="0.00" timeLoss="7.81" rerouteNo="0" devices="tripinfo_gen4.2 routing_gen4.2" vType="DEFAULT_VEHTYPE" speedFactor="0.93" vaporized=""/>
    <tripinfo id="gen4.3" depart="12.00" departLane="(4_2)_1" departPos="5.10" departSpeed="0.00" departDelay="2.00" arrival="28.00" arrivalLane="(2_5)_2" arrivalPos="86.40" arrivalSpeed="16.17" duration="16.00" routeLength="194.90" waitingTime="0.00" waitingCount="0" stopTime="0.00" timeLoss="3.95" rerouteNo="0" devices="tripinfo_gen4.3 routing_gen4.3" vType="DEFAULT_VEHTYPE" speedFactor="1.02" vaporized=""/>
    <tripinfo id="gen3.2" depart="7.00" departLane="(4_2)_0" departPos="5.10" departSpeed="0.00" departDelay="0.33" arrival="29.00" arrivalLane="(2_1)_0" arrivalPos="86.40" arrivalSpeed="15.53" duration="22.00" routeLength="176.73" waitingTime="0.00" waitingCount="0" stopTime="0.00" timeLoss="10.48" rerouteNo="0" devices="tripinfo_gen3.2 routing_gen3.2" vType="DEFAULT_VEHTYPE" speedFactor="0.99" vaporized=""/>
    <tripinfo id="gen6.2" depart="10.00" departLane="(5_2)_2" departPos="5.10" departSpeed="0.00" departDelay="0.00" arrival="29.00" arrivalLane="(2_3)_1" arrivalPos="86.40" arrivalSpeed="15.85" duration="19.00" routeLength="176.73" waitingTime="0.00" waitingCount="0" stopTime="0.00" timeLoss="6.72" rerouteNo="0" devices="tripinfo_gen6.2 routing_gen6.2" vType="DEFAULT_VEHTYPE" speedFactor="0.97" vaporized=""/>
    <tripinfo id="gen3.3" depart="10.00" departLane="(4_2)_2" departPos="5.10" departSpeed="0.00" departDelay="0.00" arrival="31.00" arrivalLane="(2_1)_0" arrivalPos="86.40" arrivalSpeed="18.93" duration="21.00" routeLength="176.73" waitingTime="0.00" waitingCount="0" stopTime="0.00" timeLoss="10.37" rerouteNo="0" devices="tripinfo_gen3.3 routing_gen3.3" vType="DEFAULT_VEHTYPE" speedFactor="1.16" vaporized=""/>
    <tripinfo id="gen5.2" depart="10.00" departLane="(5_2)_1" departPos="5.10" departSpeed="0.00" departDelay="0.00" arrival="31.00" arrivalLane="(2_4)_0" arrivalPos="86.40" arrivalSpeed="16.37" duration="21.00" routeLength="194.90" waitingTime="0.00" waitingCount="0" stopTime="0.00" timeLoss="8.60" rerouteNo="0" devices="tripinfo_gen5.2 routing_gen5.2" vType="DEFAULT_VEHTYPE" speedFactor="1.01" vaporized=""/>
    <tripinfo id="gen5.3" depart="15.00" departLane="(5_2)_0" departPos="5.10" departSpeed="0.00" departDelay="0.00" arrival="31.00" arrivalLane="(2_4)_1" arrivalPos="86.40" arrivalSpeed="17.99" duration="16.00" routeLength="194.90" waitingTime="0.00" waitingCount="0" stopTime="0.00" timeLoss="4.90" rerouteNo="0" devices="tripinfo_gen5.3 routing_gen5.3" vType="DEFAULT_VEHTYPE" speedFactor="1.13" vaporized=""/>
    <tripinfo id="gen4.4" depart="14.00" departLane="(4_2)_1" departPos="5.10" departSpeed="0.00" departDelay="0.67" arrival="32.00" arrivalLane="(2_5)_1" arrivalPos="86.40" arrivalSpeed="15.11" duration="18.00" routeLength="194.90" waitingTime="0.00" waitingCount="0" stopTime="0.00" timeLoss="4.31" rerouteNo="0" devices="tripinfo_gen4.4 routing_gen4.4" vType="DEFAULT_VEHTYPE" speedFactor="0.92" vaporized=""/>
    <tripinfo id="gen4.5" depart="17.00" departLane="(4_2)_1" departPos="5.10" departSpeed="0.00" departDelay="0.34" arrival="32.00" arrivalLane="(2_5)_2" arrivalPos="86.40" arrivalSpeed="18.28" duration="15.00" routeLength="194.90" waitingTime="0.00" waitingCount="0" stopTime="0.00" timeLoss="4.17" rerouteNo="0" devices="tripinfo_gen4.5 routing_gen4.5" vType="DEFAULT_VEHTYPE" speedFactor="1.15" vaporized=""/>
    <tripinfo id="gen5.4" depart="20.00" departLane="(5_2)_0" departPos="5.10" departSpeed="0.00" departDelay="0.00" arrival="35.00" arrivalLane="(2_4)_2" arrivalPos="86.40" arrivalSpeed="18.70" duration="15.00" routeLength="194.90" waitingTime="0.00" waitingCount="0" stopTime="0.00" timeLoss="4.99" rerouteNo="0" devices="tripinfo_gen5.4 routing_gen5.4" vType="DEFAULT_VEHTYPE" speedFactor="1.18" vaporized=""/>
    <tripinfo id="gen3.4" depart="14.00" departLane="(4_2)_0" departPos="5.10" departSpeed="0.00" departDelay="0.67" arrival="36.00" arrivalLane="(2_1)_0" arrivalPos="86.40" arrivalSpeed="13.67" duration="22.00" routeLength="176.73" waitingTime="0.00" waitingCount="0" stopTime="0.00" timeLoss="7.99" rerouteNo="0" devices="tripinfo_gen3.4 routing_gen3.4" vType="DEFAULT_VEHTYPE" speedFactor="0.87" vaporized=""/>
    <tripinfo id="gen4.6" depart="20.00" departLane="(4_2)_1" departPos="5.10" departSpeed="0.00" departDelay="0.00" arrival="36.00" arrivalLane="(2_5)_2" arrivalPos="86.40" arrivalSpeed="15.01" duration="16.00" routeLength="194.90" waitingTime="0.00" waitingCount="0" stopTime="0.00" timeLoss="3.72" rerouteNo="0" devices="tripinfo_gen4.6 routing_gen4.6" vType="DEFAULT_VEHTYPE" speedFactor="0.97" vaporized=""/>
    <tripinfo id="gen6.3" depart="16.00" departLane="(5_2)_2" departPos="5.10" departSpeed="0.00" departDelay="1.00" arrival="37.00" arrivalLane="(2_3)_1" arrivalPos="86.40" arrivalSpeed="15.27" duration="21.00" routeLength="176.73" waitingTime="0.00" waitingCount="0" stopTime="0.00" timeLoss="8.41" rerouteNo="0" devices="tripinfo_gen6.3 routing_gen6.3" vType="DEFAULT_VEHTYPE" speedFactor="0.93" vaporized=""/>
    <tripinfo id="gen6.4" depart="20.00" departLane="(5_2)_1" departPos="5.10" departSpeed="0.00" departDelay="0.00" arrival="40.00" arrivalLane="(2_3)_1" arrivalPos="86.40" arrivalSpeed="17.61" duration="20.00" routeLength="176.73" waitingTime="1.00" waitingCount="1" stopTime="0.00" timeLoss="9.73" rerouteNo="0" devices="tripinfo_gen6.4 routing_gen6.4" vType="DEFAULT_VEHTYPE" speedFactor="1.10" vaporized=""/>
    <tripinfo id="gen4.7" depart="25.00" departLane="(4_2)_2" departPos="5.10" departSpeed="0.00" departDelay="1.67" arrival="40.00" arrivalLane="(2_5)_2" arrivalPos="86.40" arrivalSpeed="17.89" duration="15.00" routeLength="194.90" waitingTime="0.00" waitingCount="0" stopTime="0.00" timeLoss="4.27" rerouteNo="0" devices="tripinfo_gen4.7 routing_gen4.7" vType="DEFAULT_VEHTYPE" speedFactor="1.09" vaporized=""/>
    <tripinfo id="gen3.5" depart="17.00" departLane="(4_2)_2" departPos="5.10" departSpeed="0.00" departDelay="0.34" arrival="41.00" arrivalLane="(2_1)_0" arrivalPos="86.40" arrivalSpeed="19.56" duration="24.00" routeLength="176.73" waitingTime="1.00" waitingCount="1" stopTime="0.00" timeLoss="12.89" rerouteNo="0" devices="tripinfo_gen3.5 routing_gen3.5" vType="DEFAULT_VEHTYPE" speedFactor="1.18" vaporized=""/>
    <tripinfo id="gen5.5" depart="25.00" departLane="(5_2)_1" departPos="5.10" departSpeed="0.00" departDelay="0.00" arrival="41.00" arrivalLane="(2_4)_2" arrivalPos="86.40" arrivalSpeed="16.55" duration="16.00" routeLength="194.90" waitingTime="0.00" waitingCount="0" stopTime="0.00" timeLoss="4.35" rerouteNo="0" devices="tripinfo_gen5.5 routing_gen5.5" vType="DEFAULT_VEHTYPE" speedFactor="1.04" vaporized=""/>
    <tripinfo id="gen3.6" depart="20.00" departLane="(4_2)_2" departPos="5.10" departSpeed="0.00" departDelay="0.00" arrival="44.00" arrivalLane="(2_1)_0" arrivalPos="86.40" arrivalSpeed="15.79" duration="24.00" routeLength="176.73" waitingTime="1.00" waitingCount="1" stopTime="0.00" timeLoss="12.41" rerouteNo="0" devices="tripinfo_gen3.6 routing_gen3.6" vType="DEFAULT_VEHTYPE" speedFactor="1.02" vaporized=""/>
    <tripinfo id="gen6.5" depart="26.00" departLane="(5_2)_2" departPos="5.10" departSpeed="0.00" departDelay="1.00" arrival="46.00" arrivalLane="(2_3)_1" arrivalPos="86.40" arrivalSpeed="16.84" duration="20.00" routeLength="176.73" waitingTime="0.00" waitingCount="0" stopTime="0.00" timeLoss="8.84" rerouteNo="0" devices="tripinfo_gen6.5 routing_gen6.5" vType="DEFAULT_VEHTYPE" speedFactor="1.09" vaporized=""/>
    <tripinfo id="gen3.7" depart="25.00" departLane="(4_2)_0" departPos="5.10" departSpeed="0.00" departDelay="1.67" arrival="47.00" arrivalLane="(2_1)_0" arrivalPos="86.40" arrivalSpeed="14.90" duration="22.00" routeLength="176.73" waitingTime="0.00" waitingCount="0" stopTime="0.00" timeLoss="9.79" rerouteNo="0" devices="tripinfo_gen3.7 routing_gen3.7" vType="DEFAULT_VEHTYPE" speedFactor="0.96" vaporized=""/>
    <tripinfo id="gen5.6" depart="30.00" departLane="(5_2)_1" departPos="5.10" departSpeed="0.00" departDelay="0.00" arrival="47.00" arrivalLane="(2_4)_0" arrivalPos="86.40" arrivalSpeed="17.78" duration="17.00" routeLength="194.90" waitingTime="0.00" waitingCount="0" stopTime="0.00" timeLoss="5.82" rerouteNo="0" devices="tripinfo_gen5.6 routing_gen5.6" vType="DEFAULT_VEHTYPE" speedFactor="1.10" vaporized=""/>
    <tripinfo id="gen4.8" depart="30.00" departLane="(4_2)_2" departPos="5.10" departSpeed="0.00" departDelay="3.34" arrival="48.00" arrivalLane="(2_5)_2" arrivalPos="86.40" arrivalSpeed="13.81" duration="18.00" routeLength="194.90" waitingTime="0.00" waitingCount="0" stopTime="0.00" timeLoss="3.58" rerouteNo="0" devices="tripinfo_gen4.8 routing_gen4.8" vType="DEFAULT_VEHTYPE" speedFactor="0.85" vaporized=""/>
    <tripinfo id="gen3.8" depart="28.00" departLane="(4_2)_2" departPos="5.10" departSpeed="0.00" departDelay="1.34" arrival="50.00" arrivalLane="(2_1)_0" arrivalPos="86.40" arrivalSpeed="14.12" duration="22.00" routeLength="176.73" waitingTime="0.00" waitingCount="0" stopTime="0.00" timeLoss="8.54" rerouteNo="0" devices="tripinfo_gen3.8 routing_gen3.8" vType="DEFAULT_VEHTYPE" speedFactor="0.88" vaporized=""/>
    <tripinfo id="gen2.1" depart="5.00" departLane="(3_2)_1" departPos="5.10" departSpeed="0.00" departDelay="0.00" arrival="55.00" arrivalLane="(2_1)_2" arrivalPos="86.40" arrivalSpeed="16.92" duration="50.00" routeLength="194.90" waitingTime="25.00" waitingCount="2" stopTime="0.00" timeLoss="37.97" rerouteNo="0" devices="tripinfo_gen2.1 routing_gen2.1" vType="DEFAULT_VEHTYPE" speedFactor="1.03" vaporized=""/>
    <tripinfo id="gen1.2" depart="12.00" departLane="(1_2)_2" departPos="5.10" departSpeed="0.00" departDelay="3.31" arrival="55.00" arrivalLane="(2_3)_0" arrivalPos="86.40" arrivalSpeed="14.05" duration="43.00" routeLength="194.90" waitingTime="19.00" waitingCount="2" stopTime="0.00" timeLoss="29.58" rerouteNo="0" devices="tripinfo_gen1.2 routing_gen1.2" vType="DEFAULT_VEHTYPE" speedFactor="0.88" vaporized=""/>
    <tripinfo id="gen1.0" depart="0.00" departLane="(1_2)_0" departPos="5.10" departSpeed="0.00" departDelay="0.00" arrival="57.00" arrivalLane="(2_3)_0" arrivalPos="86.40" arrivalSpeed="16.88" duration="57.00" routeLength="194.90" waitingTime="33.00" waitingCount="1" stopTime="0.00" timeLoss="45.28" rerouteNo="0" devices="tripinfo_gen1.0 routing_gen1.0" vType="DEFAULT_VEHTYPE" speedFactor="1.06" vaporized=""/>
    <tripinfo id="gen2.0" depart="0.00" departLane="(3_2)_1" departPos="5.10" departSpeed="0.00" departDelay="0.00" arrival="57.00" arrivalLane="(2_1)_2" arrivalPos="86.40" arrivalSpeed="16.70" duration="57.00" routeLength="194.90" waitingTime="32.00" waitingCount="1" stopTime="0.00" timeLoss="45.20" rerouteNo="0" devices="tripinfo_gen2.0 routing_gen2.0" vType="DEFAULT_VEHTYPE" speedFactor="1.01" vaporized=""/>
    <tripinfo id="gen1.1" depart="5.00" departLane="(1_2)_2" departPos="5.10" departSpeed="0.00" departDelay="0.65" arrival="59.00" arrivalLane="(2_3)_0" arrivalPos="86.40" arrivalSpeed="13.93" duration="54.00" routeLength="194.90" waitingTime="29.00" waitingCount="1" stopTime="0.00" timeLoss="39.90" rerouteNo="0" devices="tripinfo_gen1.1 routing_gen1.1" vType="DEFAULT_VEHTYPE" speedFactor="0.86" vaporized=""/>
    <tripinfo id="gen2.3" depart="15.00" departLane="(3_2)_1" departPos="5.10" departSpeed="0.00" departDelay="0.00" arrival="59.00" arrivalLane="(2_1)_2" arrivalPos="86.40" arrivalSpeed="15.24" duration="44.00" routeLength="194.90" waitingTime="10.00" waitingCount="3" stopTime="0.00" timeLoss="31.64" rerouteNo="0" devices="tripinfo_gen2.3 routing_gen2.3" vType="DEFAULT_VEHTYPE" speedFactor="0.95" vaporized=""/>
    <tripinfo id="gen2.2" depart="10.00" departLane="(3_2)_0" departPos="5.10" departSpeed="0.00" departDelay="0.00" arrival="62.00" arrivalLane="(2_1)_2" arrivalPos="86.40" arrivalSpeed="14.93" duration="52.00" routeLength="194.90" waitingTime="22.00" waitingCount="3" stopTime="0.00" timeLoss="39.27" rerouteNo="0" devices="tripinfo_gen2.2 routing_gen2.2" vType="DEFAULT_VEHTYPE" speedFactor="0.94" vaporized=""/>
    <tripinfo id="gen7.0" depart="0.00" departLane="(1_2)_2" departPos="5.10" departSpeed="0.00" departDelay="0.00" arrival="64.00" arrivalLane="(2_3)_0" arrivalPos="86.40" arrivalSpeed="11.66" duration="64.00" routeLength="194.90" waitingTime="26.00" waitingCount="1" stopTime="0.00" timeLoss="51.01" rerouteNo="0" devices="tripinfo_gen7.0 routing_gen7.0" vType="motorbike" speedFactor="0.94" vaporized=""/>
    <tripinfo id="gen2.4" depart="20.00" departLane="(3_2)_2" departPos="5.10" departSpeed="0.00" departDelay="0.00" arrival="64.00" arrivalLane="(2_1)_2" arrivalPos="86.40" arrivalSpeed="16.40" duration="44.00" routeLength="194.90" waitingTime="8.00" waitingCount="4" stopTime="0.00" timeLoss="31.60" rerouteNo="0" devices="tripinfo_gen2.4 routing_gen2.4" vType="DEFAULT_VEHTYPE" speedFactor="0.99" vaporized=""/>
    <tripinfo id="gen7.3" depart="14.00" departLane="(1_2)_1" departPos="5.10" departSpeed="0.00" departDelay="0.96" arrival="65.00" arrivalLane="(2_3)_0" arrivalPos="86.40" arrivalSpeed="12.19" duration="51.00" routeLength="194.90" waitingTime="11.00" waitingCount="2" stopTime="0.00" timeLoss="36.84" rerouteNo="0" devices="tripinfo_gen7.3 routing_gen7.3" vType="motorbike" speedFactor="0.83" vaporized=""/>
    <tripinfo id="gen2.5" depart="25.00" departLane="(3_2)_1" departPos="5.10" departSpeed="0.00" departDelay="0.00" arrival="66.00" arrivalLane="(2_1)_2" arrivalPos="86.40" arrivalSpeed="16.69" duration="41.00" routeLength="194.90" waitingTime="2.00" waitingCount="1" stopTime="0.00" timeLoss="28.79" rerouteNo="0" devices="tripinfo_gen2.5 routing_gen2.5" vType="DEFAULT_VEHTYPE" speedFactor="1.04" vaporized=""/>
    <tripinfo id="gen7.9" depart="41.00" departLane="(1_2)_2" departPos="5.10" departSpeed="0.00" departDelay="1.88" arrival="67.00" arrivalLane="(2_3)_0" arrivalPos="86.40" arrivalSpeed="11.34" duration="26.00" routeLength="194.90" waitingTime="0.00" waitingCount="0" stopTime="0.00" timeLoss="13.10" rerouteNo="0" devices="tripinfo_gen7.9 routing_gen7.9" vType="motorbike" speedFactor="0.91" vaporized=""/>
    <tripinfo id="gen2.6" depart="30.00" departLane="(3_2)_2" departPos="5.10" departSpeed="0.00" departDelay="0.00" arrival="68.00" arrivalLane="(2_1)_2" arrivalPos="86.40" arrivalSpeed="14.04" duration="38.00" routeLength="194.90" waitingTime="1.00" waitingCount="1" stopTime="0.00" timeLoss="23.74" rerouteNo="0" devices="tripinfo_gen2.6 routing_gen2.6" vType="DEFAULT_VEHTYPE" speedFactor="0.85" vaporized=""/>
    <tripinfo id="gen1.4" depart="18.00" departLane="(1_2)_2" departPos="5.10" departSpeed="0.00" departDelay="0.61" arrival="69.00" arrivalLane="(2_3)_0" arrivalPos="86.40" arrivalSpeed="14.69" duration="51.00" routeLength="194.90" waitingTime="9.00" waitingCount="2" stopTime="0.00" timeLoss="38.81" rerouteNo="0" devices="tripinfo_gen1.4 routing_gen1.4" vType="DEFAULT_VEHTYPE" speedFactor="1.01" vaporized=""/>
    <tripinfo id="gen2.7" depart="35.00" departLane="(3_2)_2" departPos="5.10" departSpeed="0.00" departDelay="0.00" arrival="69.00" arrivalLane="(2_1)_2" arrivalPos="86.40" arrivalSpeed="17.01" duration="34.00" routeLength="194.90" waitingTime="1.00" waitingCount="1" stopTime="0.00" timeLoss="23.48" rerouteNo="0" devices="tripinfo_gen2.7 routing_gen2.7" vType="DEFAULT_VEHTYPE" speedFactor="1.12" vaporized=""/>
    <tripinfo id="gen1.5" depart="24.00" departLane="(1_2)_1" departPos="5.10" departSpeed="0.00" departDelay="2.27" arrival="71.00" arrivalLane="(2_3)_0" arrivalPos="86.40" arrivalSpeed="14.76" duration="47.00" routeLength="194.90" waitingTime="6.00" waitingCount="1" stopTime="0.00" timeLoss="33.15" rerouteNo="0" devices="tripinfo_gen1.5 routing_gen1.5" vType="DEFAULT_VEHTYPE" speedFactor="0.90" vaporized=""/>
    <tripinfo id="gen2.8" depart="40.00" departLane="(3_2)_1" departPos="5.10" departSpeed="0.00" departDelay="0.00" arrival="71.00" arrivalLane="(2_1)_2" arrivalPos="86.40" arrivalSpeed="16.18" duration="31.00" routeLength="194.90" waitingTime="0.00" waitingCount="0" stopTime="0.00" timeLoss="19.41" rerouteNo="0" devices="tripinfo_gen2.8 routing_gen2.8" vType="DEFAULT_VEHTYPE" speedFactor="1.04" vaporized=""/>
    <tripinfo id="gen7.5" depart="22.00" departLane="(1_2)_2" departPos="5.10" departSpeed="0.00" departDelay="0.27" arrival="73.00" arrivalLane="(2_3)_0" arrivalPos="86.40" arrivalSpeed="13.17" duration="51.00" routeLength="194.90" waitingTime="4.00" waitingCount="1" stopTime="0.00" timeLoss="38.98" rerouteNo="0" devices="tripinfo_gen7.5 routing_gen7.5" vType="motorbike" speedFactor="1.03" vaporized=""/>
    <tripinfo id="gen2.9" depart="45.00" departLane="(3_2)_1" departPos="5.10" departSpeed="0.00" departDelay="0.00" arrival="73.00" arrivalLane="(2_1)_2" arrivalPos="86.40" arrivalSpeed="16.00" duration="28.00" routeLength="194.90" waitingTime="0.00" waitingCount="0" stopTime="0.00" timeLoss="15.46" rerouteNo="0" devices="tripinfo_gen2.9 routing_gen2.9" vType="DEFAULT_VEHTYPE" speedFactor="0.98" vaporized=""/>
    <tripinfo id="gen2.10" depart="50.00" departLane="(3_2)_0" departPos="5.10" departSpeed="0.00" departDelay="0.00" arrival="74.00" arrivalLane="(2_1)_2" arrivalPos="86.40" arrivalSpeed="18.43" duration="24.00" routeLength="194.90" waitingTime="0.00" waitingCount="0" stopTime="0.00" timeLoss="13.67" rerouteNo="0" devices="tripinfo_gen2.10 routing_gen2.10" vType="DEFAULT_VEHTYPE" speedFactor="1.15" vaporized=""/>
    <tripinfo id="gen7.6" depart="27.00" departLane="(1_2)_2" departPos="5.10" departSpeed="0.00" departDelay="0.92" arrival="75.00" arrivalLane="(2_3)_0" arrivalPos="86.40" arrivalSpeed="12.90" duration="48.00" routeLength="194.90" waitingTime="2.00" waitingCount="1" stopTime="0.00" timeLoss="34.38" rerouteNo="0" devices="tripinfo_gen7.6 routing_gen7.6" vType="motorbike" speedFactor="0.90" vaporized=""/>
    <tripinfo id="gen2.11" depart="55.00" departLane="(3_2)_2" departPos="5.10" departSpeed="0.00" departDelay="0.00" arrival="76.00" arrivalLane="(2_1)_2" arrivalPos="86.40" arrivalSpeed="14.89" duration="21.00" routeLength="194.90" waitingTime="0.00" waitingCount="0" stopTime="0.00" timeLoss="8.13" rerouteNo="0" devices="tripinfo_gen2.11 routing_gen2.11" vType="DEFAULT_VEHTYPE" speedFactor="0.92" vaporized=""/>
    <tripinfo id="gen7.11" depart="48.00" departLane="(1_2)_2" departPos="5.10" departSpeed="0.00" departDelay="0.18" arrival="77.00" arrivalLane="(2_3)_0" arrivalPos="86.40" arrivalSpeed="13.80" duration="29.00" routeLength="194.90" waitingTime="0.00" waitingCount="0" stopTime="0.00" timeLoss="16.14" rerouteNo="0" devices="tripinfo_gen7.11 routing_gen7.11" vType="motorbike" speedFactor="0.97" vaporized=""/>
    <tripinfo id="gen1.10" depart="44.00" departLane="(1_2)_1" departPos="5.10" departSpeed="0.00" departDelay="0.53" arrival="78.00" arrivalLane="(2_3)_0" arrivalPos="86.40" arrivalSpeed="14.99" duration="34.00" routeLength="194.90" waitingTime="0.00" waitingCount="0" stopTime="0.00" timeLoss="22.73" rerouteNo="0" devices="tripinfo_gen1.10 routing_gen1.10" vType="DEFAULT_VEHTYPE" speedFactor="1.06" vaporized=""/>
    <tripinfo id="gen2.12" depart="60.00" departLane="(3_2)_1" departPos="5.10" departSpeed="0.00" departDelay="0.00" arrival="78.00" arrivalLane="(2_1)_2" arrivalPos="86.40" arrivalSpeed="17.66" duration="18.00" routeLength="194.90" waitingTime="0.00" waitingCount="0" stopTime="0.00" timeLoss="6.32" rerouteNo="0" devices="tripinfo_gen2.12 routing_gen2.12" vType="DEFAULT_VEHTYPE" speedFactor="1.06" vaporized=""/>
    <tripinfo id="gen2.13" depart="65.00" departLane="(3_2)_0" departPos="5.10" departSpeed="0.00" departDelay="0.00" arrival="82.00" arrivalLane="(2_1)_2" arrivalPos="86.40" arrivalSpeed="15.30" duration="17.00" routeLength="194.90" waitingTime="0.00" waitingCount="0" stopTime="0.00" timeLoss="4.23" rerouteNo="0" devices="tripinfo_gen2.13 routing_gen2.13" vType="DEFAULT_VEHTYPE" speedFactor="0.96" vaporized=""/>
    <tripinfo id="gen7.1" depart="5.00" departLane="(1_2)_0" departPos="5.10" departSpeed="0.00" departDelay="0.65" arrival="83.00" arrivalLane="(2_3)_0" arrivalPos="86.40" arrivalSpeed="11.15" duration="78.00" routeLength="194.90" waitingTime="25.00" waitingCount="3" stopTime="0.00" timeLoss="66.84" rerouteNo="0" devices="tripinfo_gen7.1 routing_gen7.1" vType="motorbike" speedFactor="1.09" vaporized=""/>
    <tripinfo id="gen1.9" depart="40.00" departLane="(1_2)_1" departPos="5.10" departSpeed="0.00" departDelay="0.88" arrival="84.00" arrivalLane="(2_3)_0" arrivalPos="86.40" arrivalSpeed="12.42" duration="44.00" routeLength="194.90" waitingTime="0.00" waitingCount="0" stopTime="0.00" timeLoss="31.10" rerouteNo="0" devices="tripinfo_gen1.9 routing_gen1.9" vType="DEFAULT_VEHTYPE" speedFactor="0.91" vaporized=""/>
    <tripinfo id="gen1.12" depart="53.00" departLane="(1_2)_1" departPos="5.10" departSpeed="0.00" departDelay="0.84" arrival="86.00" arrivalLane="(2_3)_0" arrivalPos="86.40" arrivalSpeed="12.22" duration="33.00" routeLength="194.90" waitingTime="0.00" waitingCount="0" stopTime="0.00" timeLoss="21.31" rerouteNo="0" devices="tripinfo_gen1.12 routing_gen1.12" vType="DEFAULT_VEHTYPE" speedFactor="1.02" vaporized=""/>
    <tripinfo id="gen2.14" depart="70.00" departLane="(3_2)_0" departPos="5.10" departSpeed="0.00" departDelay="0.00" arrival="86.00" arrivalLane="(2_1)_2" arrivalPos="86.40" arrivalSpeed="16.45" duration="16.00" routeLength="194.90" waitingTime="0.00" waitingCount="0" stopTime="0.00" timeLoss="4.05" rerouteNo="0" devices="tripinfo_gen2.14 routing_gen2.14" vType="DEFAULT_VEHTYPE" speedFactor="0.99" vaporized=""/>
    <tripinfo id="gen7.2" depart="9.00" departLane="(1_2)_1" departPos="5.10" departSpeed="0.00" departDelay="0.31" arrival="89.00" arrivalLane="(2_3)_0" arrivalPos="86.40" arrivalSpeed="7.76" duration="80.00" routeLength="194.90" waitingTime="22.00" waitingCount="2" stopTime="0.00" timeLoss="67.29" rerouteNo="0" devices="tripinfo_gen7.2 routing_gen7.2" vType="motorbike" speedFactor="0.94" vaporized=""/>
    <tripinfo id="gen7.7" depart="31.00" departLane="(1_2)_1" departPos="5.10" departSpeed="0.00" departDelay="0.57" arrival="91.00" arrivalLane="(2_3)_0" arrivalPos="86.40" arrivalSpeed="8.34" duration="60.00" routeLength="194.90" waitingTime="1.00" waitingCount="1" stopTime="0.00" timeLoss="46.65" rerouteNo="0" devices="tripinfo_gen7.7 routing_gen7.7" vType="motorbike" speedFactor="0.90" vaporized=""/>
    <tripinfo id="gen1.13" depart="57.00" departLane="(1_2)_1" departPos="5.10" departSpeed="0.00" departDelay="0.49" arrival="93.00" arrivalLane="(2_3)_0" arrivalPos="86.40" arrivalSpeed="12.18" duration="36.00" routeLength="194.90" waitingTime="1.00" waitingCount="1" stopTime="0.00" timeLoss="23.77" rerouteNo="0" devices="tripinfo_gen1.13 routing_gen1.13" vType="DEFAULT_VEHTYPE" speedFactor="1.01" vaporized=""/>
    <tripinfo id="gen1.3" depart="15.00" departLane="(1_2)_0" departPos="5.10" departSpeed="0.00" departDelay="1.96" arrival="94.00" arrivalLane="(2_3)_0" arrivalPos="86.40" arrivalSpeed="11.09" duration="79.00" routeLength="194.90" waitingTime="24.00" waitingCount="2" stopTime="0.00" timeLoss="65.84" rerouteNo="0" devices="tripinfo_gen1.3 routing_gen1.3" vType="DEFAULT_VEHTYPE" speedFactor="0.89" vaporized=""/>
    <tripinfo id="gen2.15" depart="75.00" departLane="(3_2)_1" departPos="5.10" departSpeed="0.00" departDelay="0.00" arrival="94.00" arrivalLane="(2_1)_2" arrivalPos="86.40" arrivalSpeed="12.62" duration="19.00" routeLength="194.90" waitingTime="0.00" waitingCount="0" stopTime="0.00" timeLoss="4.03" rerouteNo="0" devices="tripinfo_gen2.15 routing_gen2.15" vType="DEFAULT_VEHTYPE" speedFactor="0.82" vaporized=""/>
    <tripinfo id="gen1.14" depart="61.00" departLane="(1_2)_1" departPos="5.10" departSpeed="0.00" departDelay="0.14" arrival="96.00" arrivalLane="(2_3)_0" arrivalPos="86.40" arrivalSpeed="13.79" duration="35.00" routeLength="194.90" waitingTime="1.00" waitingCount="1" stopTime="0.00" timeLoss="23.77" rerouteNo="0" devices="tripinfo_gen1.14 routing_gen1.14" vType="DEFAULT_VEHTYPE" speedFactor="1.07" vaporized=""/>
    <tripinfo id="gen3.9" depart="31.00" departLane="(4_2)_0" departPos="5.10" departSpeed="0.00" departDelay="1.00" arrival="99.00" arrivalLane="(2_1)_0" arrivalPos="86.40" arrivalSpeed="18.22" duration="68.00" routeLength="176.73" waitingTime="45.00" waitingCount="1" stopTime="0.00" timeLoss="57.88" rerouteNo="0" devices="tripinfo_gen3.9 routing_gen3.9" vType="DEFAULT_VEHTYPE" speedFactor="1.17" vaporized=""/>
    <tripinfo id="gen4.10" depart="34.00" departLane="(4_2)_2" departPos="5.10" departSpeed="0.00" departDelay="0.67" arrival="100.00" arrivalLane="(2_5)_0" arrivalPos="86.40" arrivalSpeed="16.89" duration="66.00" routeLength="194.90" waitingTime="45.00" waitingCount="1" stopTime="0.00" timeLoss="54.48" rerouteNo="0" devices="tripinfo_gen4.10 routing_gen4.10" vType="DEFAULT_VEHTYPE" speedFactor="1.02" vaporized=""/>
    <tripinfo id="gen4.13" depart="44.00" departLane="(4_2)_2" departPos="5.10" departSpeed="0.00" departDelay="0.67" arrival="100.00" arrivalLane="(2_5)_2" arrivalPos="86.40" arrivalSpeed="16.40" duration="56.00" routeLength="194.90" waitingTime="35.00" waitingCount="1" stopTime="0.00" timeLoss="43.85" rerouteNo="0" devices="tripinfo_gen4.13 routing_gen4.13" vType="DEFAULT_VEHTYPE" speedFactor="1.03" vaporized=""/>