<?xml version="1.0" encoding="UTF-8"?>

<!-- generated on 2024-02-08 10:58:20 by Eclipse SUMO GUI Version 1.19.0
<configuration xmlns:xsi="http://www.w3.org/2001/XMLSchema-instance" xsi:noNamespaceSchemaLocation="http://sumo.dlr.de/xsd/sumoConfiguration.xsd">

    <input>
        <net-file value="grid/demo.net.xml"/>
        <route-files value="grid/demo.rou.xml"/>
        <additional-files value="grid/demo.det.xml"/>
    </input>

    <output>
        <tripinfo-output value="tripinfo.xml"/>
    </output>

    <time>
        <begin value="0"/>
        <end value="800"/>
    </time>

    <processing>
        <time-to-teleport value="-1"/>
    </processing>

    <traci_server>
        <remote-port value="60817"/>
    </traci_server>

</configuration>
-->

<tripinfos xmlns:xsi="http://www.w3.org/2001/XMLSchema-instance" xsi:noNamespaceSchemaLocation="http://sumo.dlr.de/xsd/tripinfo_file.xsd">
    <tripinfo id="gen3.0" depart="0.00" departLane="(4_2)_1" departPos="5.10" departSpeed="0.00" departDelay="0.00" arrival="18.00" arrivalLane="(2_1)_0" arrivalPos="86.40" arrivalSpeed="17.64" duration="18.00" routeLength="176.73" waitingTime="0.00" waitingCount="0" stopTime="0.00" timeLoss="7.02" rerouteNo="0" devices="tripinfo_gen3.0 routing_gen3.0" vType="DEFAULT_VEHTYPE" speedFactor="1.08" vaporized=""/>
    <tripinfo id="gen5.0" depart="0.00" departLane="(5_2)_1" departPos="5.10" departSpeed="0.00" departDelay="0.00" arrival="18.00" arrivalLane="(2_4)_2" arrivalPos="86.40" arrivalSpeed="13.23" duration="18.00" routeLength="194.90" waitingTime="0.00" waitingCount="0" stopTime="0.00" timeLoss="3.56" rerouteNo="0" devices="tripinfo_gen5.0 routing_gen5.0" vType="DEFAULT_VEHTYPE" speedFactor="0.83" vaporized=""/>
    <tripinfo id="gen5.1" depart="1.00" departLane="(5_2)_0" departPos="5.10" departSpeed="0.00" departDelay="1.00" arrival="20.00" arrivalLane="(2_4)_2" arrivalPos="86.40" arrivalSpeed="16.79" duration="19.00" routeLength="194.90" waitingTime="0.00" waitingCount="0" stopTime="0.00" timeLoss="6.68" rerouteNo="0" devices="tripinfo_gen5.1 routing_gen5.1" vType="DEFAULT_VEHTYPE" speedFactor="1.02" vaporized=""/>
    <tripinfo id="gen3.4" depart="1.00" departLane="(4_2)_2" departPos="5.10" departSpeed="0.00" departDelay="0.99" arrival="21.00" arrivalLane="(2_1)_0" arrivalPos="86.40" arrivalSpeed="16.49" duration="20.00" routeLength="176.73" waitingTime="0.00" waitingCount="0" stopTime="0.00" timeLoss="8.02" rerouteNo="0" devices="tripinfo_gen3.4 routing_gen3.4" vType="DEFAULT_VEHTYPE" speedFactor="1.00" vaporized=""/>
    <tripinfo id="gen5.5" depart="4.00" departLane="(5_2)_0" departPos="5.10" departSpeed="0.00" departDelay="3.98" arrival="21.00" arrivalLane="(2_4)_2" arrivalPos="86.40" arrivalSpeed="15.56" duration="17.00" routeLength="194.90" waitingTime="0.00" waitingCount="0" stopTime="0.00" timeLoss="5.11" rerouteNo="0" devices="tripinfo_gen5.5 routing_gen5.5" vType="DEFAULT_VEHTYPE" speedFactor="1.00" vaporized=""/>
    <tripinfo id="gen3.1" depart="2.00" departLane="(4_2)_1" departPos="5.10" departSpeed="0.00" departDelay="2.00" arrival="23.00" arrivalLane="(2_1)_0" arrivalPos="86.40" arrivalSpeed="15.31" duration="21.00" routeLength="176.73" waitingTime="0.00" waitingCount="0" stopTime="0.00" timeLoss="9.23" rerouteNo="0" devices="tripinfo_gen3.1 routing_gen3.1" vType="DEFAULT_VEHTYPE" speedFactor="0.98" vaporized=""/>
    <tripinfo id="gen5.2" depart="1.00" departLane="(5_2)_2" departPos="5.10" departSpeed="0.00" departDelay="0.99" arrival="23.00" arrivalLane="(2_4)_0" arrivalPos="86.40" arrivalSpeed="13.81" duration="22.00" routeLength="194.90" waitingTime="0.00" waitingCount="0" stopTime="0.00" timeLoss="7.56" rerouteNo="0" devices="tripinfo_gen5.2 routing_gen5.2" vType="DEFAULT_VEHTYPE" speedFactor="0.84" vaporized=""/>
    <tripinfo id="gen5.8" depart="7.00" departLane="(5_2)_0" departPos="5.10" departSpeed="0.00" departDelay="6.96" arrival="24.00" arrivalLane="(2_4)_2" arrivalPos="86.40" arrivalSpeed="15.48" duration="17.00" routeLength="194.90" waitingTime="0.00" waitingCount="0" stopTime="0.00" timeLoss="3.52" rerouteNo="0" devices="tripinfo_gen5.8 routing_gen5.8" vType="DEFAULT_VEHTYPE" speedFactor="0.93" vaporized=""/>
    <tripinfo id="gen3.2" depart="1.00" departLane="(4_2)_0" departPos="5.10" departSpeed="0.00" departDelay="0.99" arrival="25.00" arrivalLane="(2_1)_0" arrivalPos="86.40" arrivalSpeed="17.67" duration="24.00" routeLength="176.73" waitingTime="0.00" waitingCount="0" stopTime="0.00" timeLoss="13.06" rerouteNo="0" devices="tripinfo_gen3.2 routing_gen3.2" vType="DEFAULT_VEHTYPE" speedFactor="1.10" vaporized=""/>
    <tripinfo id="gen5.6" depart="7.00" departLane="(5_2)_2" departPos="5.10" departSpeed="0.00" departDelay="6.97" arrival="25.00" arrivalLane="(2_4)_0" arrivalPos="86.40" arrivalSpeed="15.08" duration="18.00" routeLength="194.90" waitingTime="0.00" waitingCount="0" stopTime="0.00" timeLoss="5.50" rerouteNo="0" devices="tripinfo_gen5.6 routing_gen5.6" vType="DEFAULT_VEHTYPE" speedFactor="0.96" vaporized=""/>
    <tripinfo id="gen5.7" depart="10.00" departLane="(5_2)_2" departPos="5.10" departSpeed="0.00" departDelay="9.97" arrival="26.00" arrivalLane="(2_4)_1" arrivalPos="86.40" arrivalSpeed="15.57" duration="16.00" routeLength="194.90" waitingTime="0.00" waitingCount="0" stopTime="0.00" timeLoss="3.74" rerouteNo="0" devices="tripinfo_gen5.7 routing_gen5.7" vType="DEFAULT_VEHTYPE" speedFactor="0.99" vaporized=""/>
    <tripinfo id="gen6.0" depart="3.00" departLane="(5_2)_1" departPos="5.10" departSpeed="0.00" departDelay="3.00" arrival="28.00" arrivalLane="(2_3)_1" arrivalPos="86.40" arrivalSpeed="16.87" duration="25.00" routeLength="176.73" waitingTime="1.00" waitingCount="1" stopTime="0.00" timeLoss="13.80" rerouteNo="0" devices="tripinfo_gen6.0 routing_gen6.0" vType="DEFAULT_VEHTYPE" speedFactor="1.05" vaporized=""/>
    <tripinfo id="gen3.3" depart="4.00" departLane="(4_2)_2" departPos="5.10" departSpeed="0.00" departDelay="3.99" arrival="28.00" arrivalLane="(2_1)_0" arrivalPos="86.40" arrivalSpeed="16.25" duration="24.00" routeLength="176.73" waitingTime="0.00" waitingCount="0" stopTime="0.00" timeLoss="12.96" rerouteNo="0" devices="tripinfo_gen3.3 routing_gen3.3" vType="DEFAULT_VEHTYPE" speedFactor="1.04" vaporized=""/>
    <tripinfo id="gen5.12" depart="9.00" departLane="(5_2)_1" departPos="5.10" departSpeed="0.00" departDelay="8.94" arrival="28.00" arrivalLane="(2_4)_2" arrivalPos="86.40" arrivalSpeed="15.81" duration="19.00" routeLength="194.90" waitingTime="0.00" waitingCount="0" stopTime="0.00" timeLoss="6.80" rerouteNo="0" devices="tripinfo_gen5.12 routing_gen5.12" vType="DEFAULT_VEHTYPE" speedFactor="1.00" vaporized=""/>
    <tripinfo id="gen5.19" depart="13.00" departLane="(5_2)_1" departPos="5.10" departSpeed="0.00" departDelay="12.91" arrival="28.00" arrivalLane="(2_4)_1" arrivalPos="86.40" arrivalSpeed="19.99" duration="15.00" routeLength="194.90" waitingTime="0.00" waitingCount="0" stopTime="0.00" timeLoss="5.25" rerouteNo="0" devices="tripinfo_gen5.19 routing_gen5.19" vType="DEFAULT_VEHTYPE" speedFactor="1.24" vaporized=""/>
    <tripinfo id="gen3.5" depart="6.00" departLane="(4_2)_2" departPos="5.10" departSpeed="0.00" departDelay="5.99" arrival="30.00" arrivalLane="(2_1)_0" arrivalPos="86.40" arrivalSpeed="17.47" duration="24.00" routeLength="176.73" waitingTime="1.00" waitingCount="1" stopTime="0.00" timeLoss="13.25" rerouteNo="0" devices="tripinfo_gen3.5 routing_gen3.5" vType="DEFAULT_VEHTYPE" speedFactor="1.10" vaporized=""/>
    <tripinfo id="gen5.3" depart="4.00" departLane="(5_2)_2" departPos="5.10" departSpeed="0.00" departDelay="3.99" arrival="31.00" arrivalLane="(2_4)_0" arrivalPos="86.40" arrivalSpeed="14.95" duration="27.00" routeLength="194.90" waitingTime="0.00" waitingCount="0" stopTime="0.00" timeLoss="13.20" rerouteNo="0" devices="tripinfo_gen5.3 routing_gen5.3" vType="DEFAULT_VEHTYPE" speedFactor="0.90" vaporized=""/>
    <tripinfo id="gen5.10" depart="13.00" departLane="(5_2)_0" departPos="5.10" departSpeed="0.00" departDelay="12.95" arrival="31.00" arrivalLane="(2_4)_1" arrivalPos="86.40" arrivalSpeed="15.46" duration="18.00" routeLength="194.90" waitingTime="0.00" waitingCount="0" stopTime="0.00" timeLoss="5.48" rerouteNo="0" devices="tripinfo_gen5.10 routing_gen5.10" vType="DEFAULT_VEHTYPE" speedFactor="0.95" vaporized=""/>
    <tripinfo id="gen4.0" depart="16.00" departLane="(4_2)_2" departPos="5.10" departSpeed="0.00" departDelay="16.00" arrival="32.00" arrivalLane="(2_5)_2" arrivalPos="86.40" arrivalSpeed="16.39" duration="16.00" routeLength="194.90" waitingTime="0.00" waitingCount="0" stopTime="0.00" timeLoss="4.19" rerouteNo="0" devices="tripinfo_gen4.0 routing_gen4.0" vType="DEFAULT_VEHTYPE" speedFactor="1.03" vaporized=""/>
    <tripinfo id="gen5.4" depart="10.00" departLane="(5_2)_0" departPos="5.10" departSpeed="0.00" departDelay="9.98" arrival="32.00" arrivalLane="(2_4)_0" arrivalPos="86.40" arrivalSpeed="16.74" duration="22.00" routeLength="194.90" waitingTime="0.00" waitingCount="0" stopTime="0.00" timeLoss="11.44" rerouteNo="0" devices="tripinfo_gen5.4 routing_gen5.4" vType="DEFAULT_VEHTYPE" speedFactor="1.13" vaporized=""/>
    <tripinfo id="gen3.6" depart="11.00" departLane="(4_2)_2" departPos="5.10" departSpeed="0.00" departDelay="10.98" arrival="34.00" arrivalLane="(2_1)_0" arrivalPos="86.40" arrivalSpeed="13.49" duration="23.00" routeLength="176.73" waitingTime="0.00" waitingCount="0" stopTime="0.00" timeLoss="8.85" rerouteNo="0" devices="tripinfo_gen3.6 routing_gen3.6" vType="DEFAULT_VEHTYPE" speedFactor="0.83" vaporized=""/>
    <tripinfo id="gen5.9" depart="13.00" departLane="(5_2)_2" departPos="5.10" departSpeed="0.00" departDelay="12.96" arrival="34.00" arrivalLane="(2_4)_0" arrivalPos="86.40" arrivalSpeed="18.00" duration="21.00" routeLength="194.90" waitingTime="0.00" waitingCount="0" stopTime="0.00" timeLoss="10.04" rerouteNo="0" devices="tripinfo_gen5.9 routing_gen5.9" vType="DEFAULT_VEHTYPE" speedFactor="1.13" vaporized=""/>
    <tripinfo id="gen3.7" depart="4.00" departLane="(4_2)_0" departPos="5.10" departSpeed="0.00" departDelay="3.98" arrival="36.00" arrivalLane="(2_1)_0" arrivalPos="86.40" arrivalSpeed="17.84" duration="32.00" routeLength="176.73" waitingTime="1.00" waitingCount="1" stopTime="0.00" timeLoss="20.87" rerouteNo="0" devices="tripinfo_gen3.7 routing_gen3.7" vType="DEFAULT_VEHTYPE" speedFactor="1.09" vaporized=""/>
    <tripinfo id="gen5.13" depart="16.00" departLane="(5_2)_0" departPos="5.10" departSpeed="0.00" departDelay="15.94" arrival="36.00" arrivalLane="(2_4)_0" arrivalPos="86.40" arrivalSpeed="13.49" duration="20.00" routeLength="194.90" waitingTime="0.00" waitingCount="0" stopTime="0.00" timeLoss="5.60" rerouteNo="0" devices="tripinfo_gen5.13 routing_gen5.13" vType="DEFAULT_VEHTYPE" speedFactor="0.83" vaporized=""/>
    <tripinfo id="gen5.15" depart="19.00" departLane="(5_2)_2" departPos="5.10" departSpeed="0.00" departDelay="18.93" arrival="36.00" arrivalLane="(2_4)_2" arrivalPos="86.40" arrivalSpeed="15.07" duration="17.00" routeLength="194.90" waitingTime="0.00" waitingCount="0" stopTime="0.00" timeLoss="3.80" rerouteNo="0" devices="tripinfo_gen5.15 routing_gen5.15" vType="DEFAULT_VEHTYPE" speedFactor="0.93" vaporized=""/>
    <tripinfo id="gen3.8" depart="7.00" departLane="(4_2)_0" departPos="5.10" departSpeed="0.00" departDelay="6.98" arrival="38.00" arrivalLane="(2_1)_0" arrivalPos="86.40" arrivalSpeed="15.15" duration="31.00" routeLength="176.73" waitingTime="0.00" waitingCount="0" stopTime="0.00" timeLoss="19.38" rerouteNo="0" devices="tripinfo_gen3.8 routing_gen3.8" vType="DEFAULT_VEHTYPE" speedFactor="0.97" vaporized=""/>
    <tripinfo id="gen5.11" depart="16.00" departLane="(5_2)_1" departPos="5.10" departSpeed="0.00" departDelay="15.95" arrival="38.00" arrivalLane="(2_4)_1" arrivalPos="86.40" arrivalSpeed="15.67" duration="22.00" routeLength="194.90" waitingTime="2.00" waitingCount="1" stopTime="0.00" timeLoss="9.39" rerouteNo="0" devices="tripinfo_gen5.11 routing_gen5.11" vType="DEFAULT_VEHTYPE" speedFactor="0.99" vaporized=""/>
    <tripinfo id="gen5.16" depart="16.00" departLane="(5_2)_2" departPos="5.10" departSpeed="0.00" departDelay="15.92" arrival="38.00" arrivalLane="(2_4)_0" arrivalPos="86.40" arrivalSpeed="16.87" duration="22.00" routeLength="194.90" waitingTime="0.00" waitingCount="0" stopTime="0.00" timeLoss="10.28" rerouteNo="0" devices="tripinfo_gen5.16 routing_gen5.16" vType="DEFAULT_VEHTYPE" speedFactor="1.07" vaporized=""/>
    <tripinfo id="gen5.21" depart="19.00" departLane="(5_2)_0" departPos="5.10" departSpeed="0.00" departDelay="18.90" arrival="39.00" arrivalLane="(2_4)_0" arrivalPos="86.40" arrivalSpeed="16.19" duration="20.00" routeLength="194.90" waitingTime="0.00" waitingCount="0" stopTime="0.00" timeLoss="8.94" rerouteNo="0" devices="tripinfo_gen5.21 routing_gen5.21" vType="DEFAULT_VEHTYPE" speedFactor="1.06" vaporized=""/>
    <tripinfo id="gen3.9" depart="8.00" departLane="(4_2)_1" departPos="5.10" departSpeed="0.00" departDelay="7.97" arrival="41.00" arrivalLane="(2_1)_0" arrivalPos="86.40" arrivalSpeed="17.69" duration="33.00" routeLength="176.73" waitingTime="1.00" waitingCount="1" stopTime="0.00" timeLoss="21.49" rerouteNo="0" devices="tripinfo_gen3.9 routing_gen3.9" vType="DEFAULT_VEHTYPE" speedFactor="1.07" vaporized=""/>
    <tripinfo id="gen5.14" depart="19.00" departLane="(5_2)_1" departPos="5.10" departSpeed="0.00" departDelay="18.93" arrival="41.00" arrivalLane="(2_4)_0" arrivalPos="86.40" arrivalSpeed="15.48" duration="22.00" routeLength="194.90" waitingTime="0.00" waitingCount="0" stopTime="0.00" timeLoss="9.76" rerouteNo="0" devices="tripinfo_gen5.14 routing_gen5.14" vType="DEFAULT_VEHTYPE" speedFactor="0.98" vaporized=""/>
    <tripinfo id="gen5.24" depart="24.00" departLane="(5_2)_0" departPos="5.10" departSpeed="0.00" departDelay="23.88" arrival="41.00" arrivalLane="(2_4)_1" arrivalPos="86.40" arrivalSpeed="15.60" duration="17.00" routeLength="194.90" waitingTime="0.00" waitingCount="0" stopTime="0.00" timeLoss="4.71" rerouteNo="0" devices="tripinfo_gen5.24 routing_gen5.24" vType="DEFAULT_VEHTYPE" speedFactor="0.97" vaporized=""/>
    <tripinfo id="gen3.20" depart="14.00" departLane="(4_2)_2" departPos="5.10" departSpeed="0.00" departDelay="13.94" arrival="43.00" arrivalLane="(2_1)_0" arrivalPos="86.40" arrivalSpeed="17.77" duration="29.00" routeLength="176.73" waitingTime="0.00" waitingCount="0" stopTime="0.00" timeLoss="18.07" rerouteNo="0" devices="tripinfo_gen3.20 routing_gen3.20" vType="DEFAULT_VEHTYPE" speedFactor="1.09" vaporized=""/>
    <tripinfo id="gen5.20" depart="24.00" departLane="(5_2)_2" departPos="5.10" departSpeed="0.00" departDelay="23.90" arrival="43.00" arrivalLane="(2_4)_0" arrivalPos="86.40" arrivalSpeed="16.58" duration="19.00" routeLength="194.90" waitingTime="0.00" waitingCount="0" stopTime="0.00" timeLoss="7.03" rerouteNo="0" devices="tripinfo_gen5.20 routing_gen5.20" vType="DEFAULT_VEHTYPE" speedFactor="1.03" vaporized=""/>
    <tripinfo id="gen3.17" depart="20.00" departLane="(4_2)_2" departPos="5.10" departSpeed="0.00" departDelay="19.95" arrival="46.00" arrivalLane="(2_1)_0" arrivalPos="86.40" arrivalSpeed="14.90" duration="26.00" routeLength="176.73" waitingTime="0.00" waitingCount="0" stopTime="0.00" timeLoss="13.58" rerouteNo="0" devices="tripinfo_gen3.17 routing_gen3.17" vType="DEFAULT_VEHTYPE" speedFactor="0.97" vaporized=""/>
    <tripinfo id="gen5.18" depart="27.00" departLane="(5_2)_0" departPos="5.10" departSpeed="0.00" departDelay="26.91" arrival="46.00" arrivalLane="(2_4)_2" arrivalPos="86.40" arrivalSpeed="13.37" duration="19.00" routeLength="194.90" waitingTime="0.00" waitingCount="0" stopTime="0.00" timeLoss="4.66" rerouteNo="0" devices="tripinfo_gen5.18 routing_gen5.18" vType="DEFAULT_VEHTYPE" speedFactor="0.86" vaporized=""/>
    <tripinfo id="gen5.22" depart="28.00" departLane="(5_2)_2" departPos="5.10" departSpeed="0.00" departDelay="27.89" arrival="47.00" arrivalLane="(2_4)_2" arrivalPos="86.40" arrivalSpeed="14.77" duration="19.00" routeLength="194.90" waitingTime="0.00" waitingCount="0" stopTime="0.00" timeLoss="6.25" rerouteNo="0" devices="tripinfo_gen5.22 routing_gen5.22" vType="DEFAULT_VEHTYPE" speedFactor="0.93" vaporized=""/>
    <tripinfo id="gen5.26" depart="30.00" departLane="(5_2)_0" departPos="5.10" departSpeed="0.00" departDelay="29.87" arrival="47.00" arrivalLane="(2_4)_1" arrivalPos="86.40" arrivalSpeed="14.90" duration="17.00" routeLength="194.90" waitingTime="0.00" waitingCount="0" stopTime="0.00" timeLoss="4.06" rerouteNo="0" devices="tripinfo_gen5.26 routing_gen5.26" vType="DEFAULT_VEHTYPE" speedFactor="0.97" vaporized=""/>
    <tripinfo id="gen3.16" depart="19.00" departLane="(4_2)_2" departPos="5.10" departSpeed="0.00" departDelay="18.95" arrival="48.00" arrivalLane="(2_1)_0" arrivalPos="86.40" arrivalSpeed="16.08" duration="29.00" routeLength="176.73" waitingTime="0.00" waitingCount="0" stopTime="0.00" timeLoss="16.82" rerouteNo="0" devices="tripinfo_gen3.16 routing_gen3.16" vType="DEFAULT_VEHTYPE" speedFactor="1.02" vaporized=""/>
    <tripinfo id="gen5.30" depart="31.00" departLane="(5_2)_2" departPos="5.10" departSpeed="0.00" departDelay="30.85" arrival="48.00" arrivalLane="(2_4)_1" arrivalPos="86.40" arrivalSpeed="14.97" duration="17.00" routeLength="194.90" waitingTime="0.00" waitingCount="0" stopTime="0.00" timeLoss="4.80" rerouteNo="0" devices="tripinfo_gen5.30 routing_gen5.30" vType="DEFAULT_VEHTYPE" speedFactor="0.98" vaporized=""/>
    <tripinfo id="gen2.0" depart="0.00" departLane="(3_2)_1" departPos="5.10" departSpeed="0.00" departDelay="0.00" arrival="55.00" arrivalLane="(2_1)_2" arrivalPos="86.40" arrivalSpeed="15.86" duration="55.00" routeLength="194.90" waitingTime="32.00" waitingCount="1" stopTime="0.00" timeLoss="42.85" rerouteNo="0" devices="tripinfo_gen2.0 routing_gen2.0" vType="DEFAULT_VEHTYPE" speedFactor="1.01" vaporized=""/>
    <tripinfo id="gen1.0" depart="0.00" departLane="(1_2)_0" departPos="5.10" departSpeed="0.00" departDelay="0.00" arrival="56.00" arrivalLane="(2_3)_0" arrivalPos="86.40" arrivalSpeed="16.40" duration="56.00" routeLength="194.90" waitingTime="34.00" waitingCount="1" stopTime="0.00" timeLoss="44.16" rerouteNo="0" devices="tripinfo_gen1.0 routing_gen1.0" vType="DEFAULT_VEHTYPE" speedFactor="1.06" vaporized=""/>
    <tripinfo id="gen2.15" depart="10.00" departLane="(3_2)_1" departPos="5.10" departSpeed="0.00" departDelay="9.93" arrival="58.00" arrivalLane="(2_1)_2" arrivalPos="86.40" arrivalSpeed="14.51" duration="48.00" routeLength="194.90" waitingTime="21.00" waitingCount="2" stopTime="0.00" timeLoss="34.64" rerouteNo="0" devices="tripinfo_gen2.15 routing_gen2.15" vType="DEFAULT_VEHTYPE" speedFactor="0.89" vaporized=""/>
    <tripinfo id="gen2.5" depart="7.00" departLane="(3_2)_0" departPos="5.10" departSpeed="0.00" departDelay="6.98" arrival="60.00" arrivalLane="(2_1)_2" arrivalPos="86.40" arrivalSpeed="17.91" duration="53.00" routeLength="194.90" waitingTime="26.00" waitingCount="1" stopTime="0.00" timeLoss="42.01" rerouteNo="0" devices="tripinfo_gen2.5 routing_gen2.5" vType="DEFAULT_VEHTYPE" speedFactor="1.12" vaporized=""/>
    <tripinfo id="gen7.1" depart="2.00" departLane="(1_2)_1" departPos="5.10" departSpeed="0.00" departDelay="1.60" arrival="62.00" arrivalLane="(2_3)_0" arrivalPos="86.40" arrivalSpeed="11.71" duration="60.00" routeLength="194.90" waitingTime="20.00" waitingCount="2" stopTime="0.00" timeLoss="46.53" rerouteNo="0" devices="tripinfo_gen7.1 routing_gen7.1" vType="motorbike" speedFactor="0.89" vaporized=""/>
    <tripinfo id="gen2.21" depart="29.00" departLane="(3_2)_0" departPos="5.10" departSpeed="0.00" departDelay="28.90" arrival="63.00" arrivalLane="(2_1)_2" arrivalPos="86.40" arrivalSpeed="15.15" duration="34.00" routeLength="194.90" waitingTime="8.00" waitingCount="2" stopTime="0.00" timeLoss="20.64" rerouteNo="0" devices="tripinfo_gen2.21 routing_gen2.21" vType="DEFAULT_VEHTYPE" speedFactor="0.93" vaporized=""/>
    <tripinfo id="gen2.7" depart="10.00" departLane="(3_2)_0" departPos="5.10" departSpeed="0.00" departDelay="9.97" arrival="64.00" arrivalLane="(2_1)_2" arrivalPos="86.40" arrivalSpeed="14.61" duration="54.00" routeLength="194.90" waitingTime="21.00" waitingCount="4" stopTime="0.00" timeLoss="41.38" rerouteNo="0" devices="tripinfo_gen2.7 routing_gen2.7" vType="DEFAULT_VEHTYPE" speedFactor="0.93" vaporized=""/>
    <tripinfo id="gen7.4" depart="5.00" departLane="(1_2)_2" departPos="5.10" departSpeed="0.00" departDelay="3.40" arrival="65.00" arrivalLane="(2_3)_0" arrivalPos="86.40" arrivalSpeed="12.19" duration="60.00" routeLength="194.90" waitingTime="17.00" waitingCount="2" stopTime="0.00" timeLoss="46.52" rerouteNo="0" devices="tripinfo_gen7.4 routing_gen7.4" vType="motorbike" speedFactor="0.90" vaporized=""/>
</tripinfos>
