<?xml version="1.0" encoding="UTF-8"?>

<!-- generated on 2024-02-08 10:58:20 by Eclipse SUMO GUI Version 1.19.0
<configuration xmlns:xsi="http://www.w3.org/2001/XMLSchema-instance" xsi:noNamespaceSchemaLocation="http://sumo.dlr.de/xsd/sumoConfiguration.xsd">

    <input>
        <net-file value="grid/demo.net.xml"/>
        <route-files value="grid/demo.rou.xml"/>
        <additional-files value="grid/demo.det.xml"/>
    </input>

    <output>
        <tripinfo-output value="tripinfo.xml"/>
    </output>

    <time>
        <begin value="0"/>
        <end value="800"/>
    </time>

    <processing>
        <time-to-teleport value="-1"/>
    </processing>

    <traci_server>
        <remote-port value="60817"/>
    </traci_server>

</configuration>
-->

<detector xmlns:xsi="http://www.w3.org/2001/XMLSchema-instance" xsi:noNamespaceSchemaLocation="http://sumo.dlr.de/xsd/det_e2_file.xsd">
   <interval begin="0.00" end="30.00" id="detector-(1_2)-0" sampledSeconds="108.81" nVehEntered="7" nVehLeft="0" nVehSeen="7" meanSpeed="2.84" meanTimeLoss="12.88" meanOccupancy="21.64" maxOccupancy="44.12" meanMaxJamLengthInVehicles="1.10" meanMaxJamLengthInMeters="6.75" maxJamLengthInVehicles="4" maxJamLengthInMeters="27.51" jamLengthInVehiclesSum="38" jamLengthInMetersSum="226.40" meanHaltingDuration="4.17" maxHaltingDuration="19.00" haltingDurationSum="50.00" meanIntervalHaltingDuration="4.17" maxIntervalHaltingDuration="19.00" intervalHaltingDurationSum="50.00" startedHalts="12.00" meanVehicleNumber="3.77" maxVehicleNumber="7" />
   <interval begin="0.00" end="30.00" id="detector-(1_2)-1" sampledSeconds="116.33" nVehEntered="10" nVehLeft="2" nVehSeen="10" meanSpeed="2.65" meanTimeLoss="9.66" meanOccupancy="23.52" maxOccupancy="52.98" meanMaxJamLengthInVehicles="1.23" meanMaxJamLengthInMeters="8.26" maxJamLengthInVehicles="6" maxJamLengthInMeters="42.65" jamLengthInVehiclesSum="38" jamLengthInMetersSum="252.72" meanHaltingDuration="3.92" maxHaltingDuration="13.00" haltingDurationSum="51.00" meanIntervalHaltingDuration="3.92" maxIntervalHaltingDuration="13.00" intervalHaltingDurationSum="51.00" startedHalts="13.00" meanVehicleNumber="4.00" maxVehicleNumber="9" />
   <interval begin="0.00" end="30.00" id="detector-(1_2)-2" sampledSeconds="41.80" nVehEntered="6" nVehLeft="4" nVehSeen="6" meanSpeed="3.61" meanTimeLoss="5.36" meanOccupancy="7.66" maxOccupancy="12.66" meanMaxJamLengthInVehicles="0.00" meanMaxJamLengthInMeters="0.00" maxJamLengthInVehicles="0" maxJamLengthInMeters="0.00" jamLengthInVehiclesSum="0" jamLengthInMetersSum="0.00" meanHaltingDuration="1.00" maxHaltingDuration="1.00" haltingDurationSum="6.00" meanIntervalHaltingDuration="1.00" maxIntervalHaltingDuration="1.00" intervalHaltingDurationSum="6.00" startedHalts="6.00" meanVehicleNumber="1.53" maxVehicleNumber="2" />
   <interval begin="0.00" end="30.00" id="detector-(4_2)-0" sampledSeconds="142.41" nVehEntered="14" nVehLeft="8" nVehSeen="14" meanSpeed="4.78" meanTimeLoss="7.02" meanOccupancy="26.76" maxOccupancy="40.79" meanMaxJamLengthInVehicles="0.27" meanMaxJamLengthInMeters="0.71" maxJamLengthInVehicles="1" maxJamLengthInMeters="5.00" jamLengthInVehiclesSum="8" jamLengthInMetersSum="21.40" meanHaltingDuration="1.89" maxHaltingDuration="7.00" haltingDurationSum="17.00" meanIntervalHaltingDuration="1.89" maxIntervalHaltingDuration="7.00" intervalHaltingDurationSum="17.00" startedHalts="9.00" meanVehicleNumber="4.93" maxVehicleNumber="7" />
   <interval begin="0.00" end="30.00" id="detector-(4_2)-1" sampledSeconds="47.75" nVehEntered="11" nVehLeft="9" nVehSeen="11" meanSpeed="4.93" meanTimeLoss="3.05" meanOccupancy="8.98" maxOccupancy="18.99" meanMaxJamLengthInVehicles="0.10" meanMaxJamLengthInMeters="0.32" maxJamLengthInVehicles="1" maxJamLengthInMeters="3.58" jamLengthInVehiclesSum="3" jamLengthInMetersSum="9.45" meanHaltingDuration="1.75" maxHaltingDuration="3.00" haltingDurationSum="7.00" meanIntervalHaltingDuration="1.75" maxIntervalHaltingDuration="3.00" intervalHaltingDurationSum="7.00" startedHalts="4.00" meanVehicleNumber="1.63" maxVehicleNumber="3" />
   <interval begin="0.00" end="30.00" id="detector-(4_2)-2" sampledSeconds="28.08" nVehEntered="10" nVehLeft="9" nVehSeen="10" meanSpeed="4.57" meanTimeLoss="2.04" meanOccupancy="3.50" maxOccupancy="7.75" meanMaxJamLengthInVehicles="0.13" meanMaxJamLengthInMeters="0.01" maxJamLengthInVehicles="1" maxJamLengthInMeters="0.22" jamLengthInVehiclesSum="4" jamLengthInMetersSum="0.43" meanHaltingDuration="2.50" maxHaltingDuration="4.00" haltingDurationSum="5.00" meanIntervalHaltingDuration="2.50" maxIntervalHaltingDuration="4.00" intervalHaltingDurationSum="5.00" startedHalts="6.00" meanVehicleNumber="1.17" maxVehicleNumber="2" />
   <interval begin="0.00" end="30.00" id="detector-(3_2)-0" sampledSeconds="26.28" nVehEntered="8" nVehLeft="8" nVehSeen="8" meanSpeed="3.42" meanTimeLoss="2.64" meanOccupancy="4.61" maxOccupancy="8.73" meanMaxJamLengthInVehicles="0.03" meanMaxJamLengthInMeters="0.08" maxJamLengthInVehicles="1" maxJamLengthInMeters="2.41" jamLengthInVehiclesSum="1" jamLengthInMetersSum="2.41" meanHaltingDuration="1.33" maxHaltingDuration="2.00" haltingDurationSum="4.00" meanIntervalHaltingDuration="1.33" maxIntervalHaltingDuration="2.00" intervalHaltingDurationSum="4.00" startedHalts="4.00" meanVehicleNumber="1.00" maxVehicleNumber="2" />
   <interval begin="0.00" end="30.00" id="detector-(3_2)-1" sampledSeconds="104.42" nVehEntered="14" nVehLeft="6" nVehSeen="14" meanSpeed="4.10" meanTimeLoss="5.58" meanOccupancy="20.45" maxOccupancy="50.63" meanMaxJamLengthInVehicles="0.97" meanMaxJamLengthInMeters="5.74" maxJamLengthInVehicles="5" maxJamLengthInMeters="35.36" jamLengthInVehiclesSum="32" jamLengthInMetersSum="181.18" meanHaltingDuration="5.43" maxHaltingDuration="12.00" haltingDurationSum="38.00" meanIntervalHaltingDuration="5.43" maxIntervalHaltingDuration="12.00" intervalHaltingDurationSum="38.00" startedHalts="8.00" meanVehicleNumber="3.60" maxVehicleNumber="8" />
   <interval begin="0.00" end="30.00" id="detector-(3_2)-2" sampledSeconds="200.29" nVehEntered="11" nVehLeft="0" nVehSeen="11" meanSpeed="1.68" meanTimeLoss="16.32" meanOccupancy="41.38" maxOccupancy="68.28" meanMaxJamLengthInVehicles="4.00" meanMaxJamLengthInMeters="28.54" maxJamLengthInVehicles="11" maxJamLengthInMeters="79.00" jamLengthInVehiclesSum="120" jamLengthInMetersSum="856.13" meanHaltingDuration="9.57" maxHaltingDuration="19.00" haltingDurationSum="134.00" meanIntervalHaltingDuration="9.57" maxIntervalHaltingDuration="19.00" intervalHaltingDurationSum="134.00" startedHalts="14.00" meanVehicleNumber="6.73" maxVehicleNumber="11" />
   <interval begin="0.00" end="30.00" id="detector-(5_2)-0" sampledSeconds="71.71" nVehEntered="13" nVehLeft="10" nVehSeen="13" meanSpeed="7.42" meanTimeLoss="2.99" meanOccupancy="13.27" maxOccupancy="25.32" meanMaxJamLengthInVehicles="0.00" meanMaxJamLengthInMeters="0.00" maxJamLengthInVehicles="0" maxJamLengthInMeters="0.00" jamLengthInVehiclesSum="0" jamLengthInMetersSum="0.00" meanHaltingDuration="1.00" maxHaltingDuration="1.00" haltingDurationSum="3.00" meanIntervalHaltingDuration="1.00" maxIntervalHaltingDuration="1.00" intervalHaltingDurationSum="3.00" startedHalts="3.00" meanVehicleNumber="2.73" maxVehicleNumber="5" />
   <interval begin="0.00" end="30.00" id="detector-(5_2)-1" sampledSeconds="87.47" nVehEntered="19" nVehLeft="16" nVehSeen="19" meanSpeed="6.68" meanTimeLoss="2.76" meanOccupancy="16.71" maxOccupancy="26.27" meanMaxJamLengthInVehicles="0.10" meanMaxJamLengthInMeters="0.45" maxJamLengthInVehicles="2" maxJamLengthInMeters="8.49" jamLengthInVehiclesSum="3" jamLengthInMetersSum="13.49" meanHaltingDuration="1.28" maxHaltingDuration="3.00" haltingDurationSum="9.00" meanIntervalHaltingDuration="1.28" maxIntervalHaltingDuration="3.00" intervalHaltingDurationSum="9.00" startedHalts="8.00" meanVehicleNumber="3.20" maxVehicleNumber="6" />
   <interval begin="0.00" end="30.00" id="detector-(5_2)-2" sampledSeconds="66.67" nVehEntered="15" nVehLeft="13" nVehSeen="15" meanSpeed="7.96" meanTimeLoss="2.22" meanOccupancy="12.41" maxOccupancy="23.74" meanMaxJamLengthInVehicles="0.00" meanMaxJamLengthInMeters="0.00" maxJamLengthInVehicles="0" maxJamLengthInMeters="0.00" jamLengthInVehiclesSum="0" jamLengthInMetersSum="0.00" meanHaltingDuration="1.00" maxHaltingDuration="1.00" haltingDurationSum="1.00" meanIntervalHaltingDuration="1.00" maxIntervalHaltingDuration="1.00" intervalHaltingDurationSum="1.00" startedHalts="1.00" meanVehicleNumber="2.50" maxVehicleNumber="4" />
   <interval begin="30.00" end="60.00" id="detector-(1_2)-0" sampledSeconds="284.58" nVehEntered="4" nVehLeft="3" nVehSeen="11" meanSpeed="0.57" meanTimeLoss="24.97" meanOccupancy="58.04" maxOccupancy="68.32" meanMaxJamLengthInVehicles="7.73" meanMaxJamLengthInMeters="55.93" maxJamLengthInVehicles="11" maxJamLengthInMeters="79.00" jamLengthInVehiclesSum="232" jamLengthInMetersSum="1677.85" meanHaltingDuration="23.08" maxHaltingDuration="34.00" haltingDurationSum="277.00" meanIntervalHaltingDuration="19.92" maxIntervalHaltingDuration="28.00" intervalHaltingDurationSum="239.00" startedHalts="7.00" meanVehicleNumber="9.63" maxVehicleNumber="11" />
   <interval begin="30.00" end="60.00" id="detector-(1_2)-1" sampledSeconds="266.98" nVehEntered="5" nVehLeft="5" nVehSeen="13" meanSpeed="0.79" meanTimeLoss="19.50" meanOccupancy="54.41" maxOccupancy="63.29" meanMaxJamLengthInVehicles="5.10" meanMaxJamLengthInMeters="39.30" maxJamLengthInVehicles="8" maxJamLengthInMeters="67.30" jamLengthInVehiclesSum="189" jamLengthInMetersSum="1416.37" meanHaltingDuration="10.13" maxHaltingDuration="30.00" haltingDurationSum="233.00" meanIntervalHaltingDuration="8.70" maxIntervalHaltingDuration="19.00" intervalHaltingDurationSum="200.00" startedHalts="19.00" meanVehicleNumber="9.00" maxVehicleNumber="10" />
   <interval begin="30.00" end="60.00" id="detector-(1_2)-2" sampledSeconds="139.63" nVehEntered="8" nVehLeft="3" nVehSeen="10" meanSpeed="2.19" meanTimeLoss="12.04" meanOccupancy="27.87" maxOccupancy="41.20" meanMaxJamLengthInVehicles="1.77" meanMaxJamLengthInMeters="12.43" maxJamLengthInVehicles="4" maxJamLengthInMeters="33.69" jamLengthInVehiclesSum="55" jamLengthInMetersSum="382.91" meanHaltingDuration="4.67" maxHaltingDuration="11.00" haltingDurationSum="70.00" meanIntervalHaltingDuration="4.67" maxIntervalHaltingDuration="11.00" intervalHaltingDurationSum="70.00" startedHalts="15.00" meanVehicleNumber="4.80" maxVehicleNumber="7" />
   <interval begin="30.00" end="60.00" id="detector-(4_2)-0" sampledSeconds="223.45" nVehEntered="9" nVehLeft="5" nVehSeen="15" meanSpeed="2.03" meanTimeLoss="12.91" meanOccupancy="44.49" maxOccupancy="60.42" meanMaxJamLengthInVehicles="3.90" meanMaxJamLengthInMeters="30.38" maxJamLengthInVehicles="10" maxJamLengthInMeters="79.00" jamLengthInVehiclesSum="118" jamLengthInMetersSum="916.47" meanHaltingDuration="10.08" maxHaltingDuration="17.00" haltingDurationSum="131.00" meanIntervalHaltingDuration="10.08" maxIntervalHaltingDuration="17.00" intervalHaltingDurationSum="131.00" startedHalts="13.00" meanVehicleNumber="7.57" maxVehicleNumber="10" />
   <interval begin="30.00" end="60.00" id="detector-(4_2)-1" sampledSeconds="86.15" nVehEntered="9" nVehLeft="5" nVehSeen="11" meanSpeed="2.65" meanTimeLoss="6.59" meanOccupancy="16.84" maxOccupancy="37.41" meanMaxJamLengthInVehicles="1.23" meanMaxJamLengthInMeters="7.29" maxJamLengthInVehicles="4" maxJamLengthInMeters="27.81" jamLengthInVehiclesSum="38" jamLengthInMetersSum="221.59" meanHaltingDuration="5.00" maxHaltingDuration="14.00" haltingDurationSum="50.00" meanIntervalHaltingDuration="4.70" maxIntervalHaltingDuration="14.00" intervalHaltingDurationSum="47.00" startedHalts="9.00" meanVehicleNumber="2.90" maxVehicleNumber="6" />
   <interval begin="30.00" end="60.00" id="detector-(4_2)-2" sampledSeconds="25.57" nVehEntered="9" nVehLeft="9" nVehSeen="10" meanSpeed="2.87" meanTimeLoss="2.12" meanOccupancy="3.17" maxOccupancy="7.96" meanMaxJamLengthInVehicles="0.23" meanMaxJamLengthInMeters="0.12" maxJamLengthInVehicles="1" maxJamLengthInMeters="1.39" jamLengthInVehiclesSum="7" jamLengthInMetersSum="3.54" meanHaltingDuration="1.00" maxHaltingDuration="1.00" haltingDurationSum="1.00" meanIntervalHaltingDuration="1.00" maxIntervalHaltingDuration="1.00" intervalHaltingDurationSum="1.00" startedHalts="3.00" meanVehicleNumber="1.07" maxVehicleNumber="2" />
   <interval begin="30.00" end="60.00" id="detector-(3_2)-0" sampledSeconds="126.70" nVehEntered="10" nVehLeft="3" nVehSeen="10" meanSpeed="3.11" meanTimeLoss="10.41" meanOccupancy="25.16" maxOccupancy="44.30" meanMaxJamLengthInVehicles="1.67" meanMaxJamLengthInMeters="11.30" maxJamLengthInVehicles="5" maxJamLengthInMeters="38.82" jamLengthInVehiclesSum="51" jamLengthInMetersSum="344.06" meanHaltingDuration="4.15" maxHaltingDuration="9.00" haltingDurationSum="54.00" meanIntervalHaltingDuration="4.15" maxIntervalHaltingDuration="9.00" intervalHaltingDurationSum="54.00" startedHalts="15.00" meanVehicleNumber="4.47" maxVehicleNumber="7" />
   <interval begin="30.00" end="60.00" id="detector-(3_2)-1" sampledSeconds="286.55" nVehEntered="6" nVehLeft="5" nVehSeen="14" meanSpeed="0.62" meanTimeLoss="19.69" meanOccupancy="57.77" maxOccupancy="63.29" meanMaxJamLengthInVehicles="6.37" meanMaxJamLengthInMeters="46.16" maxJamLengthInVehicles="9" maxJamLengthInMeters="65.38" jamLengthInVehiclesSum="224" jamLengthInMetersSum="1592.60" meanHaltingDuration="10.08" maxHaltingDuration="27.00" haltingDurationSum="262.00" meanIntervalHaltingDuration="9.12" maxIntervalHaltingDuration="17.00" intervalHaltingDurationSum="237.00" startedHalts="22.00" meanVehicleNumber="9.63" maxVehicleNumber="10" />
   <interval begin="30.00" end="60.00" id="detector-(3_2)-2" sampledSeconds="309.66" nVehEntered="0" nVehLeft="2" nVehSeen="11" meanSpeed="0.32" meanTimeLoss="27.59" meanOccupancy="63.59" maxOccupancy="68.34" meanMaxJamLengthInVehicles="8.37" meanMaxJamLengthInMeters="60.06" maxJamLengthInVehicles="11" maxJamLengthInMeters="79.00" jamLengthInVehiclesSum="266" jamLengthInMetersSum="1885.94" meanHaltingDuration="17.08" maxHaltingDuration="35.00" haltingDurationSum="410.00" meanIntervalHaltingDuration="11.62" maxIntervalHaltingDuration="28.00" intervalHaltingDurationSum="279.00" startedHalts="13.00" meanVehicleNumber="10.33" maxVehicleNumber="11" />
   <interval begin="30.00" end="60.00" id="detector-(5_2)-0" sampledSeconds="125.14" nVehEntered="13" nVehLeft="10" nVehSeen="16" meanSpeed="4.44" meanTimeLoss="5.78" meanOccupancy="25.41" maxOccupancy="44.76" meanMaxJamLengthInVehicles="1.40" meanMaxJamLengthInMeters="9.67" maxJamLengthInVehicles="6" maxJamLengthInMeters="42.52" jamLengthInVehiclesSum="42" jamLengthInMetersSum="290.15" meanHaltingDuration="8.00" maxHaltingDuration="11.00" haltingDurationSum="48.00" meanIntervalHaltingDuration="8.00" maxIntervalHaltingDuration="11.00" intervalHaltingDurationSum="48.00" startedHalts="6.00" meanVehicleNumber="4.47" maxVehicleNumber="8" />
   <interval begin="30.00" end="60.00" id="detector-(5_2)-1" sampledSeconds="164.27" nVehEntered="16" nVehLeft="11" nVehSeen="19" meanSpeed="3.70" meanTimeLoss="6.66" meanOccupancy="33.27" maxOccupancy="45.61" meanMaxJamLengthInVehicles="1.93" meanMaxJamLengthInMeters="13.01" maxJamLengthInVehicles="5" maxJamLengthInMeters="35.01" jamLengthInVehiclesSum="59" jamLengthInMetersSum="391.40" meanHaltingDuration="6.36" maxHaltingDuration="16.00" haltingDurationSum="70.00" meanIntervalHaltingDuration="6.27" maxIntervalHaltingDuration="16.00" intervalHaltingDurationSum="69.00" startedHalts="10.00" meanVehicleNumber="5.67" maxVehicleNumber="8" />
   <interval begin="30.00" end="60.00" id="detector-(5_2)-2" sampledSeconds="154.98" nVehEntered="13" nVehLeft="5" nVehSeen="15" meanSpeed="3.75" meanTimeLoss="7.93" meanOccupancy="31.74" maxOccupancy="63.29" meanMaxJamLengthInVehicles="1.87" meanMaxJamLengthInMeters="12.87" maxJamLengthInVehicles="8" maxJamLengthInMeters="58.14" jamLengthInVehiclesSum="57" jamLengthInMetersSum="390.96" meanHaltingDuration="5.75" maxHaltingDuration="16.00" haltingDurationSum="69.00" meanIntervalHaltingDuration="5.75" maxIntervalHaltingDuration="16.00" intervalHaltingDurationSum="69.00" startedHalts="12.00" meanVehicleNumber="5.37" maxVehicleNumber="10" />
   <interval begin="60.00" end="67.00" id="detector-(1_2)-0" sampledSeconds="56.00" nVehEntered="0" nVehLeft="0" nVehSeen="8" meanSpeed="1.75" meanTimeLoss="6.26" meanOccupancy="47.53" maxOccupancy="50.63" meanMaxJamLengthInVehicles="3.14" meanMaxJamLengthInMeters="23.24" maxJamLengthInVehicles="5" maxJamLengthInMeters="38.33" jamLengthInVehiclesSum="28" jamLengthInMetersSum="184.56" meanHaltingDuration="15.44" maxHaltingDuration="29.00" haltingDurationSum="139.00" meanIntervalHaltingDuration="3.56" maxIntervalHaltingDuration="7.00" intervalHaltingDurationSum="32.00" startedHalts="4.00" meanVehicleNumber="8.00" maxVehicleNumber="8" />
   <interval begin="60.00" end="67.00" id="detector-(1_2)-1" sampledSeconds="47.68" nVehEntered="1" nVehLeft="2" nVehSeen="9" meanSpeed="0.96" meanTimeLoss="4.98" meanOccupancy="41.83" maxOccupancy="44.30" meanMaxJamLengthInVehicles="4.86" meanMaxJamLengthInMeters="37.95" maxJamLengthInVehicles="6" maxJamLengthInMeters="55.79" jamLengthInVehiclesSum="34" jamLengthInMetersSum="265.65" meanHaltingDuration="14.14" maxHaltingDuration="20.00" haltingDurationSum="99.00" meanIntervalHaltingDuration="5.14" maxIntervalHaltingDuration="7.00" intervalHaltingDurationSum="36.00" startedHalts="2.00" meanVehicleNumber="7.00" maxVehicleNumber="8" />
   <interval begin="60.00" end="67.00" id="detector-(1_2)-2" sampledSeconds="49.28" nVehEntered="1" nVehLeft="2" nVehSeen="8" meanSpeed="1.19" meanTimeLoss="5.69" meanOccupancy="43.65" maxOccupancy="44.71" meanMaxJamLengthInVehicles="2.86" meanMaxJamLengthInMeters="21.31" maxJamLengthInVehicles="5" maxJamLengthInMeters="42.29" jamLengthInVehiclesSum="22" jamLengthInMetersSum="159.14" meanHaltingDuration="4.90" maxHaltingDuration="12.00" haltingDurationSum="49.00" meanIntervalHaltingDuration="2.80" maxIntervalHaltingDuration="6.00" intervalHaltingDurationSum="28.00" startedHalts="6.00" meanVehicleNumber="7.14" maxVehicleNumber="8" />
   <interval begin="60.00" end="67.00" id="detector-(4_2)-0" sampledSeconds="70.00" nVehEntered="0" nVehLeft="0" nVehSeen="10" meanSpeed="0.00" meanTimeLoss="7.00" meanOccupancy="60.44" maxOccupancy="60.44" meanMaxJamLengthInVehicles="10.00" meanMaxJamLengthInMeters="79.00" maxJamLengthInVehicles="10" maxJamLengthInMeters="79.00" jamLengthInVehiclesSum="70" jamLengthInMetersSum="552.99" meanHaltingDuration="18.90" maxHaltingDuration="24.00" haltingDurationSum="189.00" meanIntervalHaltingDuration="7.00" maxIntervalHaltingDuration="7.00" intervalHaltingDurationSum="70.00" startedHalts="0.00" meanVehicleNumber="10.00" maxVehicleNumber="10" />
   <interval begin="60.00" end="67.00" id="detector-(4_2)-1" sampledSeconds="49.00" nVehEntered="1" nVehLeft="0" nVehSeen="7" meanSpeed="0.13" meanTimeLoss="6.94" meanOccupancy="43.74" maxOccupancy="43.74" meanMaxJamLengthInVehicles="6.43" meanMaxJamLengthInMeters="51.22" maxJamLengthInVehicles="7" maxJamLengthInMeters="57.56" jamLengthInVehiclesSum="47" jamLengthInMetersSum="367.63" meanHaltingDuration="12.14" maxHaltingDuration="21.00" haltingDurationSum="85.00" meanIntervalHaltingDuration="6.86" maxIntervalHaltingDuration="7.00" intervalHaltingDurationSum="48.00" startedHalts="1.00" meanVehicleNumber="7.00" maxVehicleNumber="7" />
   <interval begin="60.00" end="67.00" id="detector-(4_2)-2" sampledSeconds="11.80" nVehEntered="1" nVehLeft="0" nVehSeen="2" meanSpeed="1.00" meanTimeLoss="5.53" meanOccupancy="8.21" maxOccupancy="8.97" meanMaxJamLengthInVehicles="1.00" meanMaxJamLengthInMeters="5.27" maxJamLengthInVehicles="2" maxJamLengthInMeters="11.01" jamLengthInVehiclesSum="7" jamLengthInMetersSum="36.92" meanHaltingDuration="4.50" maxHaltingDuration="5.00" haltingDurationSum="9.00" meanIntervalHaltingDuration="4.50" maxIntervalHaltingDuration="5.00" intervalHaltingDurationSum="9.00" startedHalts="2.00" meanVehicleNumber="1.71" maxVehicleNumber="2" />
   <interval begin="60.00" end="67.00" id="detector-(3_2)-0" sampledSeconds="47.50" nVehEntered="1" nVehLeft="2" nVehSeen="8" meanSpeed="0.37" meanTimeLoss="5.81" meanOccupancy="41.10" maxOccupancy="45.93" meanMaxJamLengthInVehicles="5.71" meanMaxJamLengthInMeters="40.58" maxJamLengthInVehicles="7" maxJamLengthInMeters="49.48" jamLengthInVehiclesSum="40" jamLengthInMetersSum="284.06" meanHaltingDuration="8.83" maxHaltingDuration="14.00" haltingDurationSum="53.00" meanIntervalHaltingDuration="6.33" maxIntervalHaltingDuration="7.00" intervalHaltingDurationSum="38.00" startedHalts="3.00" meanVehicleNumber="6.86" maxVehicleNumber="8" />
   <interval begin="60.00" end="67.00" id="detector-(3_2)-1" sampledSeconds="60.85" nVehEntered="2" nVehLeft="3" nVehSeen="11" meanSpeed="1.24" meanTimeLoss="5.12" meanOccupancy="50.51" maxOccupancy="54.28" meanMaxJamLengthInVehicles="6.29" meanMaxJamLengthInMeters="45.38" maxJamLengthInVehicles="7" maxJamLengthInMeters="54.65" jamLengthInVehiclesSum="45" jamLengthInMetersSum="322.63" meanHaltingDuration="12.60" maxHaltingDuration="23.00" haltingDurationSum="126.00" meanIntervalHaltingDuration="4.80" maxIntervalHaltingDuration="7.00" intervalHaltingDurationSum="48.00" startedHalts="3.00" meanVehicleNumber="8.86" maxVehicleNumber="9" />
   <interval begin="60.00" end="67.00" id="detector-(3_2)-2" sampledSeconds="66.53" nVehEntered="1" nVehLeft="1" nVehSeen="10" meanSpeed="0.84" meanTimeLoss="6.31" meanOccupancy="56.77" maxOccupancy="58.91" meanMaxJamLengthInVehicles="5.00" meanMaxJamLengthInMeters="38.19" maxJamLengthInVehicles="8" maxJamLengthInMeters="65.21" jamLengthInVehiclesSum="50" jamLengthInMetersSum="363.22" meanHaltingDuration="5.53" maxHaltingDuration="9.00" haltingDurationSum="83.00" meanIntervalHaltingDuration="3.73" maxIntervalHaltingDuration="7.00" intervalHaltingDurationSum="56.00" startedHalts="6.00" meanVehicleNumber="9.71" maxVehicleNumber="10" />
   <interval begin="60.00" end="67.00" id="detector-(5_2)-0" sampledSeconds="54.41" nVehEntered="3" nVehLeft="0" nVehSeen="9" meanSpeed="1.13" meanTimeLoss="5.61" meanOccupancy="48.27" maxOccupancy="55.11" meanMaxJamLengthInVehicles="6.00" meanMaxJamLengthInMeters="42.51" maxJamLengthInVehicles="6" maxJamLengthInMeters="42.51" jamLengthInVehiclesSum="42" jamLengthInMetersSum="297.58" meanHaltingDuration="13.00" maxHaltingDuration="18.00" haltingDurationSum="91.00" meanIntervalHaltingDuration="6.14" maxIntervalHaltingDuration="7.00" intervalHaltingDurationSum="43.00" startedHalts="1.00" meanVehicleNumber="8.00" maxVehicleNumber="9" />
   <interval begin="60.00" end="67.00" id="detector-(5_2)-1" sampledSeconds="66.26" nVehEntered="3" nVehLeft="0" nVehSeen="11" meanSpeed="0.68" meanTimeLoss="5.78" meanOccupancy="59.11" maxOccupancy="64.34" meanMaxJamLengthInVehicles="7.14" meanMaxJamLengthInMeters="51.28" maxJamLengthInVehicles="8" maxJamLengthInMeters="57.85" jamLengthInVehiclesSum="50" jamLengthInMetersSum="358.96" meanHaltingDuration="10.64" maxHaltingDuration="23.00" haltingDurationSum="117.00" meanIntervalHaltingDuration="4.91" maxIntervalHaltingDuration="7.00" intervalHaltingDurationSum="54.00" startedHalts="4.00" meanVehicleNumber="9.57" maxVehicleNumber="11" />
   <interval begin="60.00" end="67.00" id="detector-(5_2)-2" sampledSeconds="75.85" nVehEntered="1" nVehLeft="0" nVehSeen="11" meanSpeed="0.13" meanTimeLoss="6.84" meanOccupancy="66.51" maxOccupancy="67.60" meanMaxJamLengthInVehicles="10.29" meanMaxJamLengthInMeters="74.40" maxJamLengthInVehicles="11" maxJamLengthInMeters="79.00" jamLengthInVehiclesSum="72" jamLengthInMetersSum="520.79" meanHaltingDuration="12.64" maxHaltingDuration="23.00" haltingDurationSum="139.00" meanIntervalHaltingDuration="6.73" maxIntervalHaltingDuration="7.00" intervalHaltingDurationSum="74.00" startedHalts="2.00" meanVehicleNumber="10.86" maxVehicleNumber="11" />
</detector>
